  -48.000000000000000          0.0000000000000000     
  -47.939999999999998          0.0000000000000000     
  -47.880000000000003          0.0000000000000000     
  -47.820000000000000          0.0000000000000000     
  -47.759999999999998          0.0000000000000000     
  -47.700000000000003          0.0000000000000000     
  -47.640000000000001          0.0000000000000000     
  -47.579999999999998          0.0000000000000000     
  -47.520000000000003          0.0000000000000000     
  -47.460000000000001          0.0000000000000000     
  -47.399999999999999          0.0000000000000000     
  -47.340000000000003          0.0000000000000000     
  -47.280000000000001          0.0000000000000000     
  -47.219999999999999          0.0000000000000000     
  -47.159999999999997          0.0000000000000000     
  -47.100000000000001          0.0000000000000000     
  -47.039999999999999          0.0000000000000000     
  -46.979999999999997          0.0000000000000000     
  -46.920000000000002          0.0000000000000000     
  -46.859999999999999          0.0000000000000000     
  -46.799999999999997          0.0000000000000000     
  -46.740000000000002          0.0000000000000000     
  -46.680000000000000          0.0000000000000000     
  -46.619999999999997          0.0000000000000000     
  -46.560000000000002          0.0000000000000000     
  -46.500000000000000          0.0000000000000000     
  -46.439999999999998          0.0000000000000000     
  -46.380000000000003          0.0000000000000000     
  -46.320000000000000          0.0000000000000000     
  -46.259999999999998          0.0000000000000000     
  -46.200000000000003          0.0000000000000000     
  -46.140000000000001          0.0000000000000000     
  -46.079999999999998          0.0000000000000000     
  -46.020000000000003          0.0000000000000000     
  -45.960000000000001          0.0000000000000000     
  -45.899999999999999          0.0000000000000000     
  -45.840000000000003          0.0000000000000000     
  -45.780000000000001          0.0000000000000000     
  -45.719999999999999          0.0000000000000000     
  -45.659999999999997          0.0000000000000000     
  -45.600000000000001          0.0000000000000000     
  -45.539999999999999          0.0000000000000000     
  -45.479999999999997          0.0000000000000000     
  -45.420000000000002          0.0000000000000000     
  -45.359999999999999          0.0000000000000000     
  -45.299999999999997          0.0000000000000000     
  -45.240000000000002          0.0000000000000000     
  -45.180000000000000          0.0000000000000000     
  -45.119999999999997          0.0000000000000000     
  -45.060000000000002          0.0000000000000000     
  -45.000000000000000          0.0000000000000000     
  -44.939999999999998          0.0000000000000000     
  -44.880000000000003          0.0000000000000000     
  -44.820000000000000          0.0000000000000000     
  -44.759999999999998          0.0000000000000000     
  -44.700000000000003          0.0000000000000000     
  -44.640000000000001          0.0000000000000000     
  -44.579999999999998          0.0000000000000000     
  -44.520000000000003          0.0000000000000000     
  -44.460000000000001          0.0000000000000000     
  -44.399999999999999          0.0000000000000000     
  -44.340000000000003          0.0000000000000000     
  -44.280000000000001          0.0000000000000000     
  -44.219999999999999          0.0000000000000000     
  -44.159999999999997          0.0000000000000000     
  -44.100000000000001          0.0000000000000000     
  -44.039999999999999          0.0000000000000000     
  -43.980000000000004          0.0000000000000000     
  -43.920000000000002          0.0000000000000000     
  -43.859999999999999          0.0000000000000000     
  -43.799999999999997          0.0000000000000000     
  -43.740000000000002          0.0000000000000000     
  -43.680000000000000          0.0000000000000000     
  -43.619999999999997          0.0000000000000000     
  -43.560000000000002          0.0000000000000000     
  -43.500000000000000          0.0000000000000000     
  -43.439999999999998          0.0000000000000000     
  -43.380000000000003          0.0000000000000000     
  -43.320000000000000          0.0000000000000000     
  -43.259999999999998          0.0000000000000000     
  -43.200000000000003          0.0000000000000000     
  -43.140000000000001          0.0000000000000000     
  -43.079999999999998          0.0000000000000000     
  -43.020000000000003          0.0000000000000000     
  -42.960000000000001          0.0000000000000000     
  -42.899999999999999          0.0000000000000000     
  -42.840000000000003          0.0000000000000000     
  -42.780000000000001          0.0000000000000000     
  -42.719999999999999          0.0000000000000000     
  -42.659999999999997          0.0000000000000000     
  -42.600000000000001          0.0000000000000000     
  -42.539999999999999          0.0000000000000000     
  -42.480000000000004          0.0000000000000000     
  -42.420000000000002          0.0000000000000000     
  -42.359999999999999          0.0000000000000000     
  -42.299999999999997          0.0000000000000000     
  -42.240000000000002          0.0000000000000000     
  -42.180000000000000          0.0000000000000000     
  -42.119999999999997          0.0000000000000000     
  -42.060000000000002          0.0000000000000000     
  -42.000000000000000          0.0000000000000000     
  -41.939999999999998          0.0000000000000000     
  -41.880000000000003          0.0000000000000000     
  -41.820000000000000          0.0000000000000000     
  -41.759999999999998          0.0000000000000000     
  -41.700000000000003          0.0000000000000000     
  -41.640000000000001          0.0000000000000000     
  -41.579999999999998          0.0000000000000000     
  -41.520000000000003          0.0000000000000000     
  -41.460000000000001          0.0000000000000000     
  -41.399999999999999          0.0000000000000000     
  -41.340000000000003          0.0000000000000000     
  -41.280000000000001          0.0000000000000000     
  -41.219999999999999          0.0000000000000000     
  -41.159999999999997          0.0000000000000000     
  -41.100000000000001          0.0000000000000000     
  -41.039999999999999          0.0000000000000000     
  -40.980000000000004          0.0000000000000000     
  -40.920000000000002          0.0000000000000000     
  -40.859999999999999          0.0000000000000000     
  -40.799999999999997          0.0000000000000000     
  -40.740000000000002          0.0000000000000000     
  -40.680000000000000          0.0000000000000000     
  -40.619999999999997          0.0000000000000000     
  -40.560000000000002          0.0000000000000000     
  -40.500000000000000          0.0000000000000000     
  -40.439999999999998          0.0000000000000000     
  -40.380000000000003          0.0000000000000000     
  -40.320000000000000          0.0000000000000000     
  -40.259999999999998          0.0000000000000000     
  -40.200000000000003          0.0000000000000000     
  -40.140000000000001          0.0000000000000000     
  -40.079999999999998          0.0000000000000000     
  -40.020000000000003          0.0000000000000000     
  -39.960000000000001          0.0000000000000000     
  -39.899999999999999          0.0000000000000000     
  -39.840000000000003          0.0000000000000000     
  -39.780000000000001          0.0000000000000000     
  -39.719999999999999          0.0000000000000000     
  -39.659999999999997          0.0000000000000000     
  -39.600000000000001          0.0000000000000000     
  -39.539999999999999          0.0000000000000000     
  -39.480000000000004          0.0000000000000000     
  -39.420000000000002          0.0000000000000000     
  -39.359999999999999          0.0000000000000000     
  -39.299999999999997          0.0000000000000000     
  -39.240000000000002          0.0000000000000000     
  -39.180000000000000          0.0000000000000000     
  -39.120000000000005          0.0000000000000000     
  -39.060000000000002          0.0000000000000000     
  -39.000000000000000          0.0000000000000000     
  -38.939999999999998          0.0000000000000000     
  -38.880000000000003          0.0000000000000000     
  -38.820000000000000          0.0000000000000000     
  -38.759999999999998          0.0000000000000000     
  -38.700000000000003          0.0000000000000000     
  -38.640000000000001          0.0000000000000000     
  -38.579999999999998          0.0000000000000000     
  -38.519999999999996          0.0000000000000000     
  -38.460000000000001          0.0000000000000000     
  -38.399999999999999          0.0000000000000000     
  -38.340000000000003          0.0000000000000000     
  -38.280000000000001          0.0000000000000000     
  -38.219999999999999          0.0000000000000000     
  -38.159999999999997          0.0000000000000000     
  -38.100000000000001          0.0000000000000000     
  -38.039999999999999          0.0000000000000000     
  -37.980000000000004          0.0000000000000000     
  -37.920000000000002          0.0000000000000000     
  -37.859999999999999          0.0000000000000000     
  -37.799999999999997          0.0000000000000000     
  -37.740000000000002          0.0000000000000000     
  -37.680000000000000          0.0000000000000000     
  -37.620000000000005          0.0000000000000000     
  -37.560000000000002          0.0000000000000000     
  -37.500000000000000          0.0000000000000000     
  -37.439999999999998          0.0000000000000000     
  -37.380000000000003          0.0000000000000000     
  -37.320000000000000          0.0000000000000000     
  -37.259999999999998          0.0000000000000000     
  -37.200000000000003          0.0000000000000000     
  -37.140000000000001          0.0000000000000000     
  -37.079999999999998          0.0000000000000000     
  -37.019999999999996          0.0000000000000000     
  -36.960000000000001          0.0000000000000000     
  -36.899999999999999          0.0000000000000000     
  -36.840000000000003          0.0000000000000000     
  -36.780000000000001          0.0000000000000000     
  -36.719999999999999          0.0000000000000000     
  -36.659999999999997          0.0000000000000000     
  -36.600000000000001          0.0000000000000000     
  -36.539999999999999          0.0000000000000000     
  -36.480000000000004          0.0000000000000000     
  -36.420000000000002          0.0000000000000000     
  -36.359999999999999          0.0000000000000000     
  -36.299999999999997          0.0000000000000000     
  -36.240000000000002          0.0000000000000000     
  -36.180000000000000          0.0000000000000000     
  -36.120000000000005          0.0000000000000000     
  -36.060000000000002          0.0000000000000000     
  -36.000000000000000          0.0000000000000000     
  -35.939999999999998          0.0000000000000000     
  -35.880000000000003          0.0000000000000000     
  -35.820000000000000          0.0000000000000000     
  -35.759999999999998          0.0000000000000000     
  -35.700000000000003          0.0000000000000000     
  -35.640000000000001          0.0000000000000000     
  -35.579999999999998          0.0000000000000000     
  -35.519999999999996          0.0000000000000000     
  -35.460000000000001          0.0000000000000000     
  -35.399999999999999          0.0000000000000000     
  -35.340000000000003          0.0000000000000000     
  -35.280000000000001          0.0000000000000000     
  -35.219999999999999          0.0000000000000000     
  -35.159999999999997          0.0000000000000000     
  -35.100000000000001          0.0000000000000000     
  -35.039999999999999          0.0000000000000000     
  -34.980000000000004          0.0000000000000000     
  -34.920000000000002          0.0000000000000000     
  -34.859999999999999          0.0000000000000000     
  -34.799999999999997          0.0000000000000000     
  -34.740000000000002          0.0000000000000000     
  -34.680000000000000          0.0000000000000000     
  -34.620000000000005          0.0000000000000000     
  -34.560000000000002          0.0000000000000000     
  -34.500000000000000          0.0000000000000000     
  -34.439999999999998          0.0000000000000000     
  -34.380000000000003          0.0000000000000000     
  -34.320000000000000          0.0000000000000000     
  -34.259999999999998          0.0000000000000000     
  -34.200000000000003          0.0000000000000000     
  -34.140000000000001          0.0000000000000000     
  -34.079999999999998          0.0000000000000000     
  -34.020000000000003          0.0000000000000000     
  -33.960000000000001          0.0000000000000000     
  -33.899999999999999          0.0000000000000000     
  -33.840000000000003          0.0000000000000000     
  -33.780000000000001          0.0000000000000000     
  -33.719999999999999          0.0000000000000000     
  -33.659999999999997          0.0000000000000000     
  -33.600000000000001          0.0000000000000000     
  -33.539999999999999          0.0000000000000000     
  -33.480000000000004          0.0000000000000000     
  -33.420000000000002          0.0000000000000000     
  -33.359999999999999          0.0000000000000000     
  -33.299999999999997          0.0000000000000000     
  -33.240000000000002          0.0000000000000000     
  -33.180000000000000          0.0000000000000000     
  -33.120000000000005          0.0000000000000000     
  -33.060000000000002          0.0000000000000000     
  -33.000000000000000          0.0000000000000000     
  -32.939999999999998          0.0000000000000000     
  -32.880000000000003          0.0000000000000000     
  -32.820000000000000          0.0000000000000000     
  -32.759999999999998          0.0000000000000000     
  -32.700000000000003          0.0000000000000000     
  -32.640000000000001          0.0000000000000000     
  -32.579999999999998          0.0000000000000000     
  -32.520000000000003          0.0000000000000000     
  -32.460000000000001          0.0000000000000000     
  -32.399999999999999          0.0000000000000000     
  -32.340000000000003          0.0000000000000000     
  -32.280000000000001          0.0000000000000000     
  -32.219999999999999          0.0000000000000000     
  -32.159999999999997          0.0000000000000000     
  -32.100000000000001          0.0000000000000000     
  -32.039999999999999          0.0000000000000000     
  -31.980000000000000          0.0000000000000000     
  -31.920000000000002          0.0000000000000000     
  -31.859999999999999          0.0000000000000000     
  -31.800000000000001          0.0000000000000000     
  -31.740000000000002          0.0000000000000000     
  -31.680000000000000          0.0000000000000000     
  -31.620000000000001          0.0000000000000000     
  -31.560000000000002          0.0000000000000000     
  -31.500000000000000          0.0000000000000000     
  -31.440000000000001          0.0000000000000000     
  -31.379999999999999          0.0000000000000000     
  -31.320000000000000          0.0000000000000000     
  -31.260000000000002          0.0000000000000000     
  -31.199999999999999          0.0000000000000000     
  -31.140000000000001          0.0000000000000000     
  -31.080000000000002          0.0000000000000000     
  -31.020000000000000          0.0000000000000000     
  -30.960000000000001          0.0000000000000000     
  -30.900000000000002          0.0000000000000000     
  -30.840000000000000          0.0000000000000000     
  -30.780000000000001          0.0000000000000000     
  -30.719999999999999          0.0000000000000000     
  -30.660000000000000          0.0000000000000000     
  -30.600000000000001          0.0000000000000000     
  -30.539999999999999          0.0000000000000000     
  -30.480000000000000          0.0000000000000000     
  -30.420000000000002          0.0000000000000000     
  -30.359999999999999          0.0000000000000000     
  -30.300000000000001          0.0000000000000000     
  -30.240000000000002          0.0000000000000000     
  -30.180000000000000          0.0000000000000000     
  -30.120000000000001          0.0000000000000000     
  -30.060000000000002          0.0000000000000000     
  -30.000000000000000          0.0000000000000000     
  -29.940000000000001          0.0000000000000000     
  -29.879999999999999          0.0000000000000000     
  -29.820000000000000          0.0000000000000000     
  -29.760000000000002          0.0000000000000000     
  -29.699999999999999          0.0000000000000000     
  -29.640000000000001          0.0000000000000000     
  -29.580000000000002          0.0000000000000000     
  -29.520000000000000          0.0000000000000000     
  -29.460000000000001          0.0000000000000000     
  -29.400000000000002          0.0000000000000000     
  -29.340000000000000          0.0000000000000000     
  -29.280000000000001          0.0000000000000000     
  -29.220000000000002          0.0000000000000000     
  -29.160000000000000          0.0000000000000000     
  -29.100000000000001          0.0000000000000000     
  -29.039999999999999          0.0000000000000000     
  -28.980000000000000          0.0000000000000000     
  -28.920000000000002          0.0000000000000000     
  -28.859999999999999          0.0000000000000000     
  -28.800000000000001          0.0000000000000000     
  -28.740000000000002          0.0000000000000000     
  -28.680000000000000          0.0000000000000000     
  -28.620000000000001          0.0000000000000000     
  -28.560000000000002          0.0000000000000000     
  -28.500000000000000          0.0000000000000000     
  -28.440000000000001          0.0000000000000000     
  -28.379999999999999          0.0000000000000000     
  -28.320000000000000          0.0000000000000000     
  -28.260000000000002          0.0000000000000000     
  -28.199999999999999          0.0000000000000000     
  -28.140000000000001          0.0000000000000000     
  -28.080000000000002          0.0000000000000000     
  -28.020000000000000          0.0000000000000000     
  -27.960000000000001          0.0000000000000000     
  -27.900000000000002          0.0000000000000000     
  -27.840000000000000          0.0000000000000000     
  -27.780000000000001          0.0000000000000000     
  -27.720000000000002          0.0000000000000000     
  -27.660000000000000          0.0000000000000000     
  -27.600000000000001          0.0000000000000000     
  -27.539999999999999          0.0000000000000000     
  -27.480000000000000          0.0000000000000000     
  -27.420000000000002          0.0000000000000000     
  -27.359999999999999          0.0000000000000000     
  -27.300000000000001          0.0000000000000000     
  -27.240000000000002          0.0000000000000000     
  -27.180000000000000          0.0000000000000000     
  -27.120000000000001          0.0000000000000000     
  -27.060000000000002          0.0000000000000000     
  -27.000000000000000          0.0000000000000000     
  -26.940000000000001          0.0000000000000000     
  -26.880000000000003          0.0000000000000000     
  -26.820000000000000          0.0000000000000000     
  -26.760000000000002          0.0000000000000000     
  -26.699999999999999          0.0000000000000000     
  -26.640000000000001          0.0000000000000000     
  -26.580000000000002          0.0000000000000000     
  -26.520000000000000          0.0000000000000000     
  -26.460000000000001          0.0000000000000000     
  -26.400000000000002          0.0000000000000000     
  -26.340000000000000          0.0000000000000000     
  -26.280000000000001          0.0000000000000000     
  -26.220000000000002          0.0000000000000000     
  -26.160000000000000          0.0000000000000000     
  -26.100000000000001          0.0000000000000000     
  -26.039999999999999          0.0000000000000000     
  -25.980000000000000          0.0000000000000000     
  -25.920000000000002          0.0000000000000000     
  -25.859999999999999          0.0000000000000000     
  -25.800000000000001          0.0000000000000000     
  -25.740000000000002          0.0000000000000000     
  -25.680000000000000          0.0000000000000000     
  -25.620000000000001          0.0000000000000000     
  -25.560000000000002          0.0000000000000000     
  -25.500000000000000          0.0000000000000000     
  -25.440000000000001          0.0000000000000000     
  -25.380000000000003          0.0000000000000000     
  -25.320000000000000          0.0000000000000000     
  -25.260000000000002          0.0000000000000000     
  -25.199999999999999          0.0000000000000000     
  -25.140000000000001          0.0000000000000000     
  -25.080000000000002          0.0000000000000000     
  -25.020000000000000          0.0000000000000000     
  -24.960000000000001          0.0000000000000000     
  -24.900000000000002          0.0000000000000000     
  -24.840000000000000          0.0000000000000000     
  -24.780000000000001          0.0000000000000000     
  -24.720000000000002          0.0000000000000000     
  -24.660000000000000          0.0000000000000000     
  -24.600000000000001          0.0000000000000000     
  -24.539999999999999          0.0000000000000000     
  -24.480000000000000          0.0000000000000000     
  -24.420000000000002          0.0000000000000000     
  -24.359999999999999          0.0000000000000000     
  -24.300000000000001          0.0000000000000000     
  -24.240000000000002          0.0000000000000000     
  -24.180000000000000          0.0000000000000000     
  -24.120000000000001          0.0000000000000000     
  -24.060000000000002          0.0000000000000000     
  -24.000000000000000          0.0000000000000000     
  -23.940000000000001          0.0000000000000000     
  -23.880000000000003          0.0000000000000000     
  -23.820000000000000          0.0000000000000000     
  -23.760000000000002          0.0000000000000000     
  -23.699999999999999          0.0000000000000000     
  -23.640000000000001          0.0000000000000000     
  -23.580000000000002          0.0000000000000000     
  -23.520000000000000          0.0000000000000000     
  -23.460000000000001          0.0000000000000000     
  -23.400000000000002          0.0000000000000000     
  -23.340000000000000          0.0000000000000000     
  -23.280000000000001          0.0000000000000000     
  -23.220000000000002          0.0000000000000000     
  -23.160000000000000          0.0000000000000000     
  -23.100000000000001          0.0000000000000000     
  -23.039999999999999          0.0000000000000000     
  -22.980000000000000          0.0000000000000000     
  -22.920000000000002          0.0000000000000000     
  -22.859999999999999          0.0000000000000000     
  -22.800000000000001          0.0000000000000000     
  -22.740000000000002          0.0000000000000000     
  -22.680000000000000          0.0000000000000000     
  -22.620000000000001          0.0000000000000000     
  -22.560000000000002          0.0000000000000000     
  -22.500000000000000          0.0000000000000000     
  -22.440000000000001          0.0000000000000000     
  -22.380000000000003          0.0000000000000000     
  -22.320000000000000          0.0000000000000000     
  -22.260000000000002          0.0000000000000000     
  -22.199999999999999          0.0000000000000000     
  -22.140000000000001          0.0000000000000000     
  -22.080000000000002          0.0000000000000000     
  -22.020000000000000          0.0000000000000000     
  -21.960000000000001          0.0000000000000000     
  -21.900000000000002          0.0000000000000000     
  -21.840000000000000          0.0000000000000000     
  -21.780000000000001          0.0000000000000000     
  -21.720000000000002          0.0000000000000000     
  -21.660000000000000          0.0000000000000000     
  -21.600000000000001          0.0000000000000000     
  -21.540000000000003          0.0000000000000000     
  -21.480000000000000          0.0000000000000000     
  -21.420000000000002          0.0000000000000000     
  -21.359999999999999          0.0000000000000000     
  -21.300000000000001          0.0000000000000000     
  -21.240000000000002          0.0000000000000000     
  -21.180000000000000          0.0000000000000000     
  -21.120000000000001          0.0000000000000000     
  -21.060000000000002          0.0000000000000000     
  -21.000000000000000          0.0000000000000000     
  -20.940000000000001          0.0000000000000000     
  -20.880000000000003          0.0000000000000000     
  -20.820000000000000          0.0000000000000000     
  -20.760000000000002          0.0000000000000000     
  -20.699999999999999          0.0000000000000000     
  -20.640000000000001          0.0000000000000000     
  -20.580000000000002          0.0000000000000000     
  -20.520000000000000          0.0000000000000000     
  -20.460000000000001          0.0000000000000000     
  -20.400000000000002          0.0000000000000000     
  -20.340000000000000          0.0000000000000000     
  -20.280000000000001          0.0000000000000000     
  -20.220000000000002          0.0000000000000000     
  -20.160000000000000          0.0000000000000000     
  -20.100000000000001          0.0000000000000000     
  -20.040000000000003          0.0000000000000000     
  -19.980000000000000          0.0000000000000000     
  -19.920000000000002          0.0000000000000000     
  -19.859999999999999          0.0000000000000000     
  -19.800000000000001          0.0000000000000000     
  -19.740000000000002          0.0000000000000000     
  -19.680000000000000          0.0000000000000000     
  -19.620000000000001          0.0000000000000000     
  -19.560000000000002          0.0000000000000000     
  -19.500000000000000          0.0000000000000000     
  -19.440000000000001          0.0000000000000000     
  -19.380000000000003          0.0000000000000000     
  -19.320000000000000          0.0000000000000000     
  -19.260000000000002          0.0000000000000000     
  -19.200000000000003          0.0000000000000000     
  -19.140000000000001          0.0000000000000000     
  -19.080000000000002          0.0000000000000000     
  -19.020000000000000         -1.8920748050957585E-038
  -18.960000000000001         -4.5342352508768407E-038
  -18.900000000000002         -8.3218676482715905E-038
  -18.840000000000000         -1.5278006271398014E-037
  -18.780000000000001         -2.7310894527422787E-037
  -18.720000000000002         -4.5377097984451033E-037
  -18.660000000000000         -7.2364483143205936E-037
  -18.600000000000001         -1.0870525529163613E-036
  -18.540000000000003         -1.5927611245179541E-036
  -18.480000000000000         -2.2340553894711406E-036
  -18.420000000000002         -3.1896580749546795E-036
  -18.359999999999999         -6.8912466660587575E-036
  -18.300000000000001         -1.1511821946511241E-035
  -18.240000000000002         -1.4840471251239005E-035
  -18.180000000000000         -2.0316010607118720E-035
  -18.120000000000001         -2.8983589662402305E-035
  -18.060000000000002         -4.2183673757322859E-035
  -18.000000000000000         -6.3865778982750895E-035
  -17.940000000000001         -9.7470361490127276E-035
  -17.880000000000003         -1.5009384566308324E-034
  -17.820000000000000         -2.3107209028779594E-034
  -17.760000000000002         -3.5362995782399306E-034
  -17.700000000000003         -5.3914360641151154E-034
  -17.640000000000001         -8.1935978647045159E-034
  -17.580000000000002         -1.2423245107443962E-033
  -17.520000000000000         -1.8807027992393483E-033
  -17.460000000000001         -2.8439620123626565E-033
  -17.400000000000002         -4.2965659320798515E-033
  -17.340000000000000         -6.4828807321436862E-033
  -17.280000000000001         -9.7684542989331828E-033
  -17.220000000000002         -1.4698205038529260E-032
  -17.160000000000000         -2.2084215141673832E-032
  -17.100000000000001         -3.3135234429057920E-032
  -17.040000000000003         -4.9647544634380691E-032
  -16.980000000000000         -7.4285917982559346E-032
  -16.920000000000002         -1.1099724132568883E-031
  -16.859999999999999         -1.6561898434512209E-031
  -16.800000000000001         -2.4677282211190872E-031
  -16.740000000000002         -3.6717461774629477E-031
  -16.680000000000000         -5.4555191231267112E-031
  -16.620000000000001         -8.0944606825306364E-031
  -16.560000000000002         -1.1993014968501692E-030
  -16.500000000000000         -1.7744245212103180E-030
  -16.440000000000001         -2.6216546454411846E-030
  -16.380000000000003         -3.8679617163524873E-030
  -16.320000000000000         -5.6987221334643817E-030
  -16.260000000000002         -8.3841922043021028E-030
  -16.200000000000003         -1.2317807066899428E-029
  -16.140000000000001         -1.8071482150671531E-029
  -16.080000000000002         -2.6475376768767992E-029
  -16.020000000000000         -3.8732762297560578E-029
  -15.960000000000001         -5.6585157879995908E-029
  -15.899999999999999         -8.2549474091693056E-029
  -15.840000000000003         -1.2025789443714483E-028
  -15.780000000000001         -1.7494444650383949E-028
  -15.719999999999999         -2.5414058767286271E-028
  -15.660000000000004         -3.6866764885630242E-028
  -15.600000000000001         -5.3405117726309605E-028
  -15.539999999999999         -7.7253407485871206E-028
  -15.480000000000004         -1.1159352321074796E-027
  -15.420000000000002         -1.6097068845864291E-027
  -15.359999999999999         -2.3186811786792305E-027