  -48.000000000000000          0.0000000000000000     
  -47.939999999999998          0.0000000000000000     
  -47.880000000000003          0.0000000000000000     
  -47.820000000000000          0.0000000000000000     
  -47.759999999999998          0.0000000000000000     
  -47.700000000000003          0.0000000000000000     
  -47.640000000000001          0.0000000000000000     
  -47.579999999999998          0.0000000000000000     
  -47.520000000000003          0.0000000000000000     
  -47.460000000000001          0.0000000000000000     
  -47.399999999999999          0.0000000000000000     
  -47.340000000000003          0.0000000000000000     
  -47.280000000000001          0.0000000000000000     
  -47.219999999999999          0.0000000000000000     
  -47.159999999999997          0.0000000000000000     
  -47.100000000000001          0.0000000000000000     
  -47.039999999999999          0.0000000000000000     
  -46.979999999999997          0.0000000000000000     
  -46.920000000000002          0.0000000000000000     
  -46.859999999999999          0.0000000000000000     
  -46.799999999999997          0.0000000000000000     
  -46.740000000000002          0.0000000000000000     
  -46.680000000000000          0.0000000000000000     
  -46.619999999999997          0.0000000000000000     
  -46.560000000000002          0.0000000000000000     
  -46.500000000000000          0.0000000000000000     
  -46.439999999999998          0.0000000000000000     
  -46.380000000000003          0.0000000000000000     
  -46.320000000000000          0.0000000000000000     
  -46.259999999999998          0.0000000000000000     
  -46.200000000000003          0.0000000000000000     
  -46.140000000000001          0.0000000000000000     
  -46.079999999999998          0.0000000000000000     
  -46.020000000000003          0.0000000000000000     
  -45.960000000000001          0.0000000000000000     
  -45.899999999999999          0.0000000000000000     
  -45.840000000000003          0.0000000000000000     
  -45.780000000000001          0.0000000000000000     
  -45.719999999999999          0.0000000000000000     
  -45.659999999999997          0.0000000000000000     
  -45.600000000000001          0.0000000000000000     
  -45.539999999999999          0.0000000000000000     
  -45.479999999999997          0.0000000000000000     
  -45.420000000000002          0.0000000000000000     
  -45.359999999999999          0.0000000000000000     
  -45.299999999999997          0.0000000000000000     
  -45.240000000000002          0.0000000000000000     
  -45.180000000000000          0.0000000000000000     
  -45.119999999999997          0.0000000000000000     
  -45.060000000000002          0.0000000000000000     
  -45.000000000000000          0.0000000000000000     
  -44.939999999999998          0.0000000000000000     
  -44.880000000000003          0.0000000000000000     
  -44.820000000000000          0.0000000000000000     
  -44.759999999999998          0.0000000000000000     
  -44.700000000000003          0.0000000000000000     
  -44.640000000000001          0.0000000000000000     
  -44.579999999999998          0.0000000000000000     
  -44.520000000000003          0.0000000000000000     
  -44.460000000000001          0.0000000000000000     
  -44.399999999999999          0.0000000000000000     
  -44.340000000000003          0.0000000000000000     
  -44.280000000000001          0.0000000000000000     
  -44.219999999999999          0.0000000000000000     
  -44.159999999999997          0.0000000000000000     
  -44.100000000000001          0.0000000000000000     
  -44.039999999999999          0.0000000000000000     
  -43.980000000000004          0.0000000000000000     
  -43.920000000000002          0.0000000000000000     
  -43.859999999999999          0.0000000000000000     
  -43.799999999999997          0.0000000000000000     
  -43.740000000000002          0.0000000000000000     
  -43.680000000000000          0.0000000000000000     
  -43.619999999999997          0.0000000000000000     
  -43.560000000000002          0.0000000000000000     
  -43.500000000000000          0.0000000000000000     
  -43.439999999999998          0.0000000000000000     
  -43.380000000000003          0.0000000000000000     
  -43.320000000000000          0.0000000000000000     
  -43.259999999999998          0.0000000000000000     
  -43.200000000000003          0.0000000000000000     
  -43.140000000000001          0.0000000000000000     
  -43.079999999999998          0.0000000000000000     
  -43.020000000000003          0.0000000000000000     
  -42.960000000000001          0.0000000000000000     
  -42.899999999999999          0.0000000000000000     
  -42.840000000000003          0.0000000000000000     
  -42.780000000000001          0.0000000000000000     
  -42.719999999999999          0.0000000000000000     
  -42.659999999999997          0.0000000000000000     
  -42.600000000000001          0.0000000000000000     
  -42.539999999999999          0.0000000000000000     
  -42.480000000000004          0.0000000000000000     
  -42.420000000000002          0.0000000000000000     
  -42.359999999999999          0.0000000000000000     
  -42.299999999999997          0.0000000000000000     
  -42.240000000000002          0.0000000000000000     
  -42.180000000000000          0.0000000000000000     
  -42.119999999999997          0.0000000000000000     
  -42.060000000000002          0.0000000000000000     
  -42.000000000000000          0.0000000000000000     
  -41.939999999999998          0.0000000000000000     
  -41.880000000000003          0.0000000000000000     
  -41.820000000000000          0.0000000000000000     
  -41.759999999999998          0.0000000000000000     
  -41.700000000000003          0.0000000000000000     
  -41.640000000000001          0.0000000000000000     
  -41.579999999999998          0.0000000000000000     
  -41.520000000000003          0.0000000000000000     
  -41.460000000000001          0.0000000000000000     
  -41.399999999999999          0.0000000000000000     
  -41.340000000000003          0.0000000000000000     
  -41.280000000000001          0.0000000000000000     
  -41.219999999999999          0.0000000000000000     
  -41.159999999999997          0.0000000000000000     
  -41.100000000000001          0.0000000000000000     
  -41.039999999999999          0.0000000000000000     
  -40.980000000000004          0.0000000000000000     
  -40.920000000000002          0.0000000000000000     
  -40.859999999999999          0.0000000000000000     
  -40.799999999999997          0.0000000000000000     
  -40.740000000000002          0.0000000000000000     
  -40.680000000000000          0.0000000000000000     
  -40.619999999999997          0.0000000000000000     
  -40.560000000000002          0.0000000000000000     
  -40.500000000000000          0.0000000000000000     
  -40.439999999999998          0.0000000000000000     
  -40.380000000000003          0.0000000000000000     
  -40.320000000000000          0.0000000000000000     
  -40.259999999999998          0.0000000000000000     
  -40.200000000000003          0.0000000000000000     
  -40.140000000000001          0.0000000000000000     
  -40.079999999999998          0.0000000000000000     
  -40.020000000000003          0.0000000000000000     
  -39.960000000000001          0.0000000000000000     
  -39.899999999999999          0.0000000000000000     
  -39.840000000000003          0.0000000000000000     
  -39.780000000000001          0.0000000000000000     
  -39.719999999999999          0.0000000000000000     
  -39.659999999999997          0.0000000000000000     
  -39.600000000000001          0.0000000000000000     
  -39.539999999999999          0.0000000000000000     
  -39.480000000000004          0.0000000000000000     
  -39.420000000000002          0.0000000000000000     
  -39.359999999999999          0.0000000000000000     
  -39.299999999999997          0.0000000000000000     
  -39.240000000000002          0.0000000000000000     
  -39.180000000000000          0.0000000000000000     
  -39.120000000000005          0.0000000000000000     
  -39.060000000000002          0.0000000000000000     
  -39.000000000000000          0.0000000000000000     
  -38.939999999999998          0.0000000000000000     
  -38.880000000000003          0.0000000000000000     
  -38.820000000000000          0.0000000000000000     
  -38.759999999999998          0.0000000000000000     
  -38.700000000000003          0.0000000000000000     
  -38.640000000000001          0.0000000000000000     
  -38.579999999999998          0.0000000000000000     
  -38.519999999999996          0.0000000000000000     
  -38.460000000000001          0.0000000000000000     
  -38.399999999999999          0.0000000000000000     
  -38.340000000000003          0.0000000000000000     
  -38.280000000000001          0.0000000000000000     
  -38.219999999999999          0.0000000000000000     
  -38.159999999999997          0.0000000000000000     
  -38.100000000000001          0.0000000000000000     
  -38.039999999999999          0.0000000000000000     
  -37.980000000000004          0.0000000000000000     
  -37.920000000000002          0.0000000000000000     
  -37.859999999999999          0.0000000000000000     
  -37.799999999999997          0.0000000000000000     
  -37.740000000000002          0.0000000000000000     
  -37.680000000000000          0.0000000000000000     
  -37.620000000000005          0.0000000000000000     
  -37.560000000000002          0.0000000000000000     
  -37.500000000000000          0.0000000000000000     
  -37.439999999999998          0.0000000000000000     
  -37.380000000000003          0.0000000000000000     
  -37.320000000000000          0.0000000000000000     
  -37.259999999999998          0.0000000000000000     
  -37.200000000000003          0.0000000000000000     
  -37.140000000000001          0.0000000000000000     
  -37.079999999999998          0.0000000000000000     
  -37.019999999999996          0.0000000000000000     
  -36.960000000000001          0.0000000000000000     
  -36.899999999999999          0.0000000000000000     
  -36.840000000000003          0.0000000000000000     
  -36.780000000000001          0.0000000000000000     
  -36.719999999999999          0.0000000000000000     
  -36.659999999999997          0.0000000000000000     
  -36.600000000000001          0.0000000000000000     
  -36.539999999999999          0.0000000000000000     
  -36.480000000000004          0.0000000000000000     
  -36.420000000000002          0.0000000000000000     
  -36.359999999999999          0.0000000000000000     
  -36.299999999999997          0.0000000000000000     
  -36.240000000000002          0.0000000000000000     
  -36.180000000000000          0.0000000000000000     
  -36.120000000000005          0.0000000000000000     
  -36.060000000000002          0.0000000000000000     
  -36.000000000000000          0.0000000000000000     
  -35.939999999999998          0.0000000000000000     
  -35.880000000000003          0.0000000000000000     
  -35.820000000000000          0.0000000000000000     
  -35.759999999999998          0.0000000000000000     
  -35.700000000000003          0.0000000000000000     
  -35.640000000000001          0.0000000000000000     
  -35.579999999999998          0.0000000000000000     
  -35.519999999999996          0.0000000000000000     
  -35.460000000000001          0.0000000000000000     
  -35.399999999999999          0.0000000000000000     
  -35.340000000000003          0.0000000000000000     
  -35.280000000000001          0.0000000000000000     
  -35.219999999999999          0.0000000000000000     
  -35.159999999999997          0.0000000000000000     
  -35.100000000000001          0.0000000000000000     
  -35.039999999999999          0.0000000000000000     
  -34.980000000000004          0.0000000000000000     
  -34.920000000000002          0.0000000000000000     
  -34.859999999999999          0.0000000000000000     
  -34.799999999999997          0.0000000000000000     
  -34.740000000000002          0.0000000000000000     
  -34.680000000000000          0.0000000000000000     
  -34.620000000000005          0.0000000000000000     
  -34.560000000000002          0.0000000000000000     
  -34.500000000000000          0.0000000000000000     
  -34.439999999999998          0.0000000000000000     
  -34.380000000000003          0.0000000000000000     
  -34.320000000000000          0.0000000000000000     
  -34.259999999999998          0.0000000000000000     
  -34.200000000000003          0.0000000000000000     
  -34.140000000000001          0.0000000000000000     
  -34.079999999999998          0.0000000000000000     
  -34.020000000000003          0.0000000000000000     
  -33.960000000000001          0.0000000000000000     
  -33.899999999999999          0.0000000000000000     
  -33.840000000000003          0.0000000000000000     
  -33.780000000000001          0.0000000000000000     
  -33.719999999999999          0.0000000000000000     
  -33.659999999999997          0.0000000000000000     
  -33.600000000000001          0.0000000000000000     
  -33.539999999999999          0.0000000000000000     
  -33.480000000000004          0.0000000000000000     
  -33.420000000000002          0.0000000000000000     
  -33.359999999999999          0.0000000000000000     
  -33.299999999999997          0.0000000000000000     
  -33.240000000000002          0.0000000000000000     
  -33.180000000000000          0.0000000000000000     
  -33.120000000000005          0.0000000000000000     
  -33.060000000000002          0.0000000000000000     
  -33.000000000000000          0.0000000000000000     
  -32.939999999999998          0.0000000000000000     
  -32.880000000000003          0.0000000000000000     
  -32.820000000000000          0.0000000000000000     
  -32.759999999999998          0.0000000000000000     
  -32.700000000000003          0.0000000000000000     
  -32.640000000000001          0.0000000000000000     
  -32.579999999999998          0.0000000000000000     
  -32.520000000000003          0.0000000000000000     
  -32.460000000000001          0.0000000000000000     
  -32.399999999999999          0.0000000000000000     
  -32.340000000000003          0.0000000000000000     
  -32.280000000000001          0.0000000000000000     
  -32.219999999999999          0.0000000000000000     
  -32.159999999999997          0.0000000000000000     
  -32.100000000000001          0.0000000000000000     
  -32.039999999999999          0.0000000000000000     
  -31.980000000000000          0.0000000000000000     
  -31.920000000000002          0.0000000000000000     
  -31.859999999999999          0.0000000000000000     
  -31.800000000000001          0.0000000000000000     
  -31.740000000000002          0.0000000000000000     
  -31.680000000000000          0.0000000000000000     
  -31.620000000000001          0.0000000000000000     
  -31.560000000000002          0.0000000000000000     
  -31.500000000000000          0.0000000000000000     
  -31.440000000000001          0.0000000000000000     
  -31.379999999999999          0.0000000000000000     
  -31.320000000000000          0.0000000000000000     
  -31.260000000000002          0.0000000000000000     
  -31.199999999999999          0.0000000000000000     
  -31.140000000000001          0.0000000000000000     
  -31.080000000000002          0.0000000000000000     
  -31.020000000000000          0.0000000000000000     
  -30.960000000000001          0.0000000000000000     
  -30.900000000000002          0.0000000000000000     
  -30.840000000000000          0.0000000000000000     
  -30.780000000000001          0.0000000000000000     
  -30.719999999999999          0.0000000000000000     
  -30.660000000000000          0.0000000000000000     
  -30.600000000000001          0.0000000000000000     
  -30.539999999999999          0.0000000000000000     
  -30.480000000000000          0.0000000000000000     
  -30.420000000000002          0.0000000000000000     
  -30.359999999999999          0.0000000000000000     
  -30.300000000000001          0.0000000000000000     
  -30.240000000000002          0.0000000000000000     
  -30.180000000000000          0.0000000000000000     
  -30.120000000000001          0.0000000000000000     
  -30.060000000000002          0.0000000000000000     
  -30.000000000000000          0.0000000000000000     
  -29.940000000000001          0.0000000000000000     
  -29.879999999999999          0.0000000000000000     
  -29.820000000000000          0.0000000000000000     
  -29.760000000000002          0.0000000000000000     
  -29.699999999999999          0.0000000000000000     
  -29.640000000000001          0.0000000000000000     
  -29.580000000000002          0.0000000000000000     
  -29.520000000000000          0.0000000000000000     
  -29.460000000000001          0.0000000000000000     
  -29.400000000000002          0.0000000000000000     
  -29.340000000000000          0.0000000000000000     
  -29.280000000000001          0.0000000000000000     
  -29.220000000000002          0.0000000000000000     
  -29.160000000000000          0.0000000000000000     
  -29.100000000000001          0.0000000000000000     
  -29.039999999999999          0.0000000000000000     
  -28.980000000000000          0.0000000000000000     
  -28.920000000000002          0.0000000000000000     
  -28.859999999999999          0.0000000000000000     
  -28.800000000000001          0.0000000000000000     
  -28.740000000000002          0.0000000000000000     
  -28.680000000000000          0.0000000000000000     
  -28.620000000000001          0.0000000000000000     
  -28.560000000000002          0.0000000000000000     
  -28.500000000000000          0.0000000000000000     
  -28.440000000000001          0.0000000000000000     
  -28.379999999999999          0.0000000000000000     
  -28.320000000000000          0.0000000000000000     
  -28.260000000000002          0.0000000000000000     
  -28.199999999999999          0.0000000000000000     
  -28.140000000000001          0.0000000000000000     
  -28.080000000000002          0.0000000000000000     
  -28.020000000000000          0.0000000000000000     
  -27.960000000000001          0.0000000000000000     
  -27.900000000000002          0.0000000000000000     
  -27.840000000000000          0.0000000000000000     
  -27.780000000000001          0.0000000000000000     
  -27.720000000000002          0.0000000000000000     
  -27.660000000000000          0.0000000000000000     
  -27.600000000000001          0.0000000000000000     
  -27.539999999999999          0.0000000000000000     
  -27.480000000000000          0.0000000000000000     
  -27.420000000000002          0.0000000000000000     
  -27.359999999999999          0.0000000000000000     
  -27.300000000000001          0.0000000000000000     
  -27.240000000000002          0.0000000000000000     
  -27.180000000000000          0.0000000000000000     
  -27.120000000000001          0.0000000000000000     
  -27.060000000000002          0.0000000000000000     
  -27.000000000000000          0.0000000000000000     
  -26.940000000000001          0.0000000000000000     
  -26.880000000000003          0.0000000000000000     
  -26.820000000000000          0.0000000000000000     
  -26.760000000000002          0.0000000000000000     
  -26.699999999999999          0.0000000000000000     
  -26.640000000000001          0.0000000000000000     
  -26.580000000000002          0.0000000000000000     
  -26.520000000000000          0.0000000000000000     
  -26.460000000000001          0.0000000000000000     
  -26.400000000000002          0.0000000000000000     
  -26.340000000000000          0.0000000000000000     
  -26.280000000000001          0.0000000000000000     
  -26.220000000000002          0.0000000000000000     
  -26.160000000000000          0.0000000000000000     
  -26.100000000000001          0.0000000000000000     
  -26.039999999999999          0.0000000000000000     
  -25.980000000000000          0.0000000000000000     
  -25.920000000000002          0.0000000000000000     
  -25.859999999999999          0.0000000000000000     
  -25.800000000000001          0.0000000000000000     
  -25.740000000000002          0.0000000000000000     
  -25.680000000000000          0.0000000000000000     
  -25.620000000000001          0.0000000000000000     
  -25.560000000000002          0.0000000000000000     
  -25.500000000000000          0.0000000000000000     
  -25.440000000000001          0.0000000000000000     
  -25.380000000000003          0.0000000000000000     
  -25.320000000000000          0.0000000000000000     
  -25.260000000000002          0.0000000000000000     
  -25.199999999999999          0.0000000000000000     
  -25.140000000000001          0.0000000000000000     
  -25.080000000000002          0.0000000000000000     
  -25.020000000000000          0.0000000000000000     
  -24.960000000000001          0.0000000000000000     
  -24.900000000000002          0.0000000000000000     
  -24.840000000000000          0.0000000000000000     
  -24.780000000000001          0.0000000000000000     
  -24.720000000000002          0.0000000000000000     
  -24.660000000000000          0.0000000000000000     
  -24.600000000000001          0.0000000000000000     
  -24.539999999999999          0.0000000000000000     
  -24.480000000000000          0.0000000000000000     
  -24.420000000000002          0.0000000000000000     
  -24.359999999999999          0.0000000000000000     
  -24.300000000000001          0.0000000000000000     
  -24.240000000000002          0.0000000000000000     
  -24.180000000000000          0.0000000000000000     
  -24.120000000000001          0.0000000000000000     
  -24.060000000000002          0.0000000000000000     
  -24.000000000000000          0.0000000000000000     
  -23.940000000000001          0.0000000000000000     
  -23.880000000000003          0.0000000000000000     
  -23.820000000000000          0.0000000000000000     
  -23.760000000000002          0.0000000000000000     
  -23.699999999999999          0.0000000000000000     
  -23.640000000000001          0.0000000000000000     
  -23.580000000000002          0.0000000000000000     
  -23.520000000000000          0.0000000000000000     
  -23.460000000000001          0.0000000000000000     
  -23.400000000000002          0.0000000000000000     
  -23.340000000000000          0.0000000000000000     
  -23.280000000000001          0.0000000000000000     
  -23.220000000000002          0.0000000000000000     
  -23.160000000000000          0.0000000000000000     
  -23.100000000000001          0.0000000000000000     
  -23.039999999999999          0.0000000000000000     
  -22.980000000000000          0.0000000000000000     
  -22.920000000000002          0.0000000000000000     
  -22.859999999999999          0.0000000000000000     
  -22.800000000000001          0.0000000000000000     
  -22.740000000000002          0.0000000000000000     
  -22.680000000000000          0.0000000000000000     
  -22.620000000000001          0.0000000000000000     
  -22.560000000000002          0.0000000000000000     
  -22.500000000000000          0.0000000000000000     
  -22.440000000000001          0.0000000000000000     
  -22.380000000000003          0.0000000000000000     
  -22.320000000000000          0.0000000000000000     
  -22.260000000000002          0.0000000000000000     
  -22.199999999999999          0.0000000000000000     
  -22.140000000000001          0.0000000000000000     
  -22.080000000000002          0.0000000000000000     
  -22.020000000000000          0.0000000000000000     
  -21.960000000000001          0.0000000000000000     
  -21.900000000000002          0.0000000000000000     
  -21.840000000000000          0.0000000000000000     
  -21.780000000000001          0.0000000000000000     
  -21.720000000000002          0.0000000000000000     
  -21.660000000000000          0.0000000000000000     
  -21.600000000000001          0.0000000000000000     
  -21.540000000000003          0.0000000000000000     
  -21.480000000000000          0.0000000000000000     
  -21.420000000000002          0.0000000000000000     
  -21.359999999999999          0.0000000000000000     
  -21.300000000000001          0.0000000000000000     
  -21.240000000000002          0.0000000000000000     
  -21.180000000000000          0.0000000000000000     
  -21.120000000000001          0.0000000000000000     
  -21.060000000000002          0.0000000000000000     
  -21.000000000000000          0.0000000000000000     
  -20.940000000000001          0.0000000000000000     
  -20.880000000000003          0.0000000000000000     
  -20.820000000000000          0.0000000000000000     
  -20.760000000000002          0.0000000000000000     
  -20.699999999999999          0.0000000000000000     
  -20.640000000000001          0.0000000000000000     
  -20.580000000000002          0.0000000000000000     
  -20.520000000000000          0.0000000000000000     
  -20.460000000000001          0.0000000000000000     
  -20.400000000000002          0.0000000000000000     
  -20.340000000000000          0.0000000000000000     
  -20.280000000000001          0.0000000000000000     
  -20.220000000000002          0.0000000000000000     
  -20.160000000000000          0.0000000000000000     
  -20.100000000000001          0.0000000000000000     
  -20.040000000000003          0.0000000000000000     
  -19.980000000000000          0.0000000000000000     
  -19.920000000000002          0.0000000000000000     
  -19.859999999999999          0.0000000000000000     
  -19.800000000000001          0.0000000000000000     
  -19.740000000000002          0.0000000000000000     
  -19.680000000000000          0.0000000000000000     
  -19.620000000000001          0.0000000000000000     
  -19.560000000000002          0.0000000000000000     
  -19.500000000000000          0.0000000000000000     
  -19.440000000000001          0.0000000000000000     
  -19.380000000000003          0.0000000000000000     
  -19.320000000000000          0.0000000000000000     
  -19.260000000000002          0.0000000000000000     
  -19.200000000000003          0.0000000000000000     
  -19.140000000000001          0.0000000000000000     
  -19.080000000000002          0.0000000000000000     
  -19.020000000000000          0.0000000000000000     
  -18.960000000000001          0.0000000000000000     
  -18.900000000000002          0.0000000000000000     
  -18.840000000000000          0.0000000000000000     
  -18.780000000000001          0.0000000000000000     
  -18.720000000000002          0.0000000000000000     
  -18.660000000000000          0.0000000000000000     
  -18.600000000000001          0.0000000000000000     
  -18.540000000000003          0.0000000000000000     
  -18.480000000000000          0.0000000000000000     
  -18.420000000000002          0.0000000000000000     
  -18.359999999999999          0.0000000000000000     
  -18.300000000000001          0.0000000000000000     
  -18.240000000000002         -1.4876815081581204E-038
  -18.180000000000000         -3.4017361000563529E-038
  -18.120000000000001         -5.8333112343067053E-038
  -18.060000000000002         -8.9187613790190752E-038
  -18.000000000000000         -1.2916480926340487E-037
  -17.940000000000001         -1.8568619403233409E-037
  -17.880000000000003         -3.4650707549042574E-037
  -17.820000000000000         -6.0856159196394057E-037
  -17.760000000000002         -1.5382504797310661E-036
  -17.700000000000003         -4.0060774294612557E-036
  -17.640000000000001         -6.7504606980541157E-036
  -17.580000000000002         -1.0274899693266649E-035
  -17.520000000000000         -1.5602206513839973E-035
  -17.460000000000001         -2.1387221447264726E-035
  -17.400000000000002         -3.0515913703405722E-035
  -17.340000000000000         -4.5870831619895892E-035
  -17.280000000000001         -7.0978679228364729E-035
  -17.220000000000002         -1.0842607215472417E-034
  -17.160000000000000         -1.6447500885493619E-034
  -17.100000000000001         -2.4774803885764478E-034
  -17.040000000000003         -3.7147981658235546E-034
  -16.980000000000000         -5.5581367750960626E-034
  -16.920000000000002         -8.3018214051519007E-034
  -16.859999999999999         -1.2382533513642163E-033
  -16.800000000000001         -1.8450432597521927E-033
  -16.740000000000002         -2.7467016097756204E-033
  -16.680000000000000         -4.0846180558128543E-033
  -16.620000000000001         -6.0662800240824980E-033
  -16.560000000000002         -8.9959590845071157E-033
  -16.500000000000000         -1.3319724853839041E-032
  -16.440000000000001         -1.9691033539674430E-032
  -16.380000000000003         -2.9065922779060710E-032
  -16.320000000000000         -4.2840759372603801E-032
  -16.260000000000002         -6.3051606799787416E-032
  -16.200000000000003         -9.2662756184854151E-032
  -16.140000000000001         -1.3598338467755826E-031
  -16.080000000000002         -1.9926834473839916E-031
  -16.020000000000000         -2.9158259623559327E-031
  -15.960000000000001         -4.2604386854310227E-031
  -15.899999999999999         -6.2160573853403666E-031
  -15.840000000000003         -9.0561335513338305E-031
  -15.780000000000001         -1.3174587095315471E-030
  -15.719999999999999         -1.9138029804268647E-030
  -15.660000000000004         -2.7760228205403209E-030
  -15.600000000000001         -4.0208128454622265E-030
  -15.539999999999999         -5.8152597030094227E-030
  -15.480000000000004         -8.3982379512012081E-030
  -15.420000000000002         -1.2110733486691343E-029
  -15.359999999999999         -1.7438749464731255E-029